                               Psi4 1.2.1 release

  ==> Input File <==

--------------------------------------------------------------------------
#! STO-3G H2 Hartree-Fock Energy Point
# see also: http://pubchemqc.riken.jp/cgi-bin/molecularquery.py?name=hydrogen

molecule h2 {
H            0.0   0.0   0.0
H            0.0   0.0   1.4
unit bohr
}

set {
  basis STO-3G
}

thisenergy = energy('hf')
--------------------------------------------------------------------------

    Molecular point group: d2h

    Geometry (in Bohr), charge = 0, multiplicity = 1:

       Center              X                  Y                   Z               Mass
    ------------   -----------------  -----------------  -----------------  -----------------
         H            0.000000000000     0.000000000000    -0.700000000000     1.007825032070
         H            0.000000000000     0.000000000000     0.700000000000     1.007825032070

  Charge       = 0
  Multiplicity = 1
  Basis Set: STO-3G
    Blend: STO-3G
  Basis Set: (STO-3G AUX)
    Blend: DEF2-SVP-JKFIT

    Orbital Energies [Eh]
    ---------------------

    Doubly Occupied:

       1Ag    -0.578227

  @DF-RHF Final Energy:    -1.11673832869090

   => Energetics <=

    Nuclear Repulsion Energy =              0.7142857142857142
    One-Electron Energy =                  -2.5055941236716524
    Two-Electron Energy =                   0.6745700806950400
    Total Energy =                         -1.1167383286908983

  Dipole Moment: [D]
     X:     0.0000      Y:     0.0000      Z:     0.0000     Total:     0.0000

*** Psi4 exiting successfully. Buy a developer a beer!
