                               Psi4 1.2.1 release

  ==> Input File <==

--------------------------------------------------------------------------
#! STO-3G H2 Hartree-Fock Energy Point
# see also: http://pubchemqc.riken.jp/cgi-bin/molecularquery.py?name=hydrogen

molecule h2 {
H            0.0   0.0   0.0
H            0.0   0.0   R
unit bohr
}

Rvals=[0.5, 0.6, 0.7, 0.8, 0.9, 1.0, 1.1, 1.2, 1.3, 1.4, 1.5, 1.6, 2.0, 3.0, 4.0, 5.0, 6.0]

set {
  basis STO-3G
}

for R in Rvals:
   h2.R = R
   ene=energy('hf')
   print (R, ene)
--------------------------------------------------------------------------

    Molecular point group: c2v
  Charge       = 0
  Multiplicity = 1
  Basis Set: STO-3G
    Blend: STO-3G
  Basis Set: (STO-3G AUX)
    Blend: DEF2-SVP-JKFIT
  @DF-RHF Final Energy:    -0.40335789507272
    Total Energy =                         -0.4033578950727160
    Molecular point group: c2v
  Basis Set: STO-3G
    Blend: STO-3G
  Basis Set: (STO-3G AUX)
    Blend: DEF2-SVP-JKFIT
  @DF-RHF Final Energy:    -0.66827974937243
    Total Energy =                         -0.6682797493724344
  Basis Set: STO-3G
    Blend: STO-3G
  Basis Set: (STO-3G AUX)
    Blend: DEF2-SVP-JKFIT
  @DF-RHF Final Energy:    -0.83715198283436
    Total Energy =                         -0.8371519828343567
  Basis Set: STO-3G
    Blend: STO-3G
  Basis Set: (STO-3G AUX)
    Blend: DEF2-SVP-JKFIT
  @DF-RHF Final Energy:    -0.94733155765587
    Total Energy =                         -0.9473315576558672
  @DF-RHF Final Energy:    -1.01952293183465
    Total Energy =                         -1.0195229318346521
  @DF-RHF Final Energy:    -1.06602633710781
    Total Energy =                         -1.0660263371078118
  @DF-RHF Final Energy:    -1.09459070014459
    Total Energy =                         -1.0945907001445898
  @DF-RHF Final Energy:    -1.11035954079984
    Total Energy =                         -1.1103595407998381
  @DF-RHF Final Energy:    -1.11689580193977
    Total Energy =                         -1.1168958019397743
  @DF-RHF Final Energy:    -1.11673832869091
    Total Energy =                         -1.1167383286909074
  @DF-RHF Final Energy:    -1.11171971229347
    Total Energy =                         -1.1117197122934750
  @DF-RHF Final Energy:    -1.10316503838888
    Total Energy =                         -1.1031650383888807
  @DF-RHF Final Energy:    -1.04920024078890
    Total Energy =                         -1.0492002407889025
  Basis Set: STO-3G
    Blend: STO-3G
  Basis Set: (STO-3G AUX)
    Blend: DEF2-SVP-JKFIT
  @DF-RHF Final Energy:    -0.88536152511256
    Total Energy =                         -0.8853615251125645
  Basis Set: STO-3G
    Blend: STO-3G
  Basis Set: (STO-3G AUX)
    Blend: DEF2-SVP-JKFIT
  @DF-RHF Final Energy:    -0.76120169634891
    Total Energy =                         -0.7612016963489063
  Multiplicity = 1
  Basis Set: STO-3G
    Blend: STO-3G
  Basis Set: (STO-3G AUX)
    Blend: DEF2-SVP-JKFIT
  @DF-RHF Final Energy:    -0.68655980952543
    Total Energy =                         -0.6865598095254287
    Molecular point group: c2v

    Geometry (in Bohr), charge = 0, multiplicity = 1:

       Center              X                  Y                   Z               Mass
    ------------   -----------------  -----------------  -----------------  -----------------
         H            0.000000000000     0.000000000000     0.000000000000     1.007825032070
         H            0.000000000000     0.000000000000     6.000000000000     1.007825032070

  Charge       = 0
  Multiplicity = 1
  Basis Set: STO-3G
    Blend: STO-3G
  Basis Set: (STO-3G AUX)
    Blend: DEF2-SVP-JKFIT

    Orbital Energies [Eh]
    ---------------------

    Doubly Occupied:

       1A1    -0.172290

  @DF-RHF Final Energy:    -0.64522705474507

   => Energetics <=

    Nuclear Repulsion Energy =              0.1666666666666667
    One-Electron Energy =                  -1.2792079290361835
    Two-Electron Energy =                   0.4673142076244461
    PCM Polarization Energy =               0.0000000000000000
    Total Energy =                         -0.6452270547450707

  Dipole Moment: [D]
     X:     0.0000      Y:     0.0000      Z:     0.0000     Total:     0.0000

*** Psi4 exiting successfully. Buy a developer a beer!
