                               Psi4 1.2 release

  ==> Input File <==

--------------------------------------------------------------------------
#! STO-3G H2 Hartree-Fock Energy Point
# see also: http://pubchemqc.riken.jp/cgi-bin/molecularquery.py?name=hydrogen

molecule h2 {
H            0.0   0.0   0.0
H            0.0   0.0   1.4001
unit bohr
symmetry c1
}

set {
  basis STO-3G
}

en, wfn = energy('hf', return_wfn=True)

nbf = wfn.nso() # of basis function
Ca = wfn.Ca()   # AO->MO matrix
_Ca = np.asarray(Ca)

mints = psi4.core.MintsHelper(wfn.basisset())
mo_I = np.asarray(mints.mo_transform(mints.ao_eri(), Ca, Ca, Ca, Ca))
ao_T = np.asarray(mints.ao_kinetic())
ao_V = np.asarray(mints.ao_potential())

ao_Hcore = ao_T + ao_V
mo_Hcore = np.dot(np.dot(_Ca.T, ao_Hcore), _Ca)

print("1 electron integral")
for i in range(nbf):
  for j in range(i,nbf):
     if (math.fabs(mo_Hcore[i,j]) > 1.0e-8):
          print (i+1,j+1, mo_Hcore[i,j])

print("2 electron integral")
for i in range(nbf):
  for j in range(i,nbf):
    for k in range(nbf):
      for l in range(k,nbf):
        if ( (i*nbf+j) >= (k*nbf+j) ):
          if (math.fabs(mo_I[i,j,k,l]) > 1.0e-8):
            print (i+1,j+1,k+1,l+1, mo_I[i,j,k,l])

--------------------------------------------------------------------------

    Molecular point group: c1

    Geometry (in Bohr), charge = 0, multiplicity = 1:

       Center              X                  Y                   Z               Mass
    ------------   -----------------  -----------------  -----------------  -----------------
         H            0.000000000000     0.000000000000    -0.700050000000     1.007825032070
         H            0.000000000000     0.000000000000     0.700050000000     1.007825032070

  Charge       = 0
  Multiplicity = 1
  Basis Set: STO-3G
    Blend: STO-3G
  Basis Set: (STO-3G AUX)
    Blend: DEF2-SVP-JKFIT

    Orbital Energies [Eh]
    ---------------------

    Doubly Occupied:

       1A     -0.578205

  @DF-RHF Final Energy:    -1.11673548045043

   => Energetics <=

    Nuclear Repulsion Energy =              0.7142346975216056
    One-Electron Energy =                  -2.5055301609153209
    Two-Electron Energy =                   0.6745599829432896
    Total Energy =                         -1.1167354804504257

  Dipole Moment: [D]
     X:     0.0000      Y:     0.0000      Z:     0.0000     Total:     0.0000

*** Psi4 exiting successfully. Buy a developer a beer!
