                               Psi4 1.2.1 release

  ==> Input File <==

--------------------------------------------------------------------------
#! STO-3G H2O Hartree-Fock
# GEOM: B3LYP/6-31G* taken from http://pubchemqc.riken.jp/cgi-bin/molecularquery.py?name=water

molecule h2o {
O           0.9784782017    0.0224130404    0.0994725951
H           1.9459769733    0.0279738016    0.0505799279
H           0.7023051046    0.1274709488   -0.8231103953
symmetry c1
}

set {
  basis STO-3G
}

en, wfn = energy('hf', return_wfn=True)

nbf = wfn.nso() # of basis function
Ca = wfn.Ca()   # get AO->MO matrix
_Ca = np.asarray(Ca) # AO->MO matrix in numpy format

mints = psi4.core.MintsHelper(wfn.basisset())

#get ERI
mo_ERI = np.asarray(mints.mo_transform(mints.ao_eri(), Ca, Ca, Ca, Ca))
#get kinetic and n-e integral in AO format
ao_T = np.asarray(mints.ao_kinetic())
ao_V = np.asarray(mints.ao_potential())

ao_Hcore = ao_T + ao_V
#obtain Hcore in MO basis
mo_Hcore = np.dot(np.dot(_Ca.T, ao_Hcore), _Ca)

count=0
for i in range(nbf):
  for j in range(i,nbf):
     if (math.fabs(mo_Hcore[i,j]) > 1.0e-6):
       count = count+1

print("1 electron integrals")
print("%d" % count )
for i in range(nbf):
  for j in range(i,nbf):
     if (math.fabs(mo_Hcore[i,j]) > 1.0e-6):
          print ('%3d, %3d,  %+.16e' % (i+1,j+1, mo_Hcore[i,j]))

count=0
for i in range(nbf):
  for j in range(i,nbf):
    for k in range(nbf):
      for l in range(k,nbf):
        if ( (i*nbf+j) >= (k*nbf+j) ):
          if (math.fabs(mo_ERI[i,j,k,l]) > 1.0e-6):
            count = count+1

print("2 electron integrals")
print("%d" % count)
for i in range(nbf):
  for j in range(i,nbf):
    for k in range(nbf):
      for l in range(k,nbf):
        if ( (i*nbf+j) >= (k*nbf+j) ):
          if (math.fabs(mo_ERI[i,j,k,l]) > 1.0e-6):
            print ('%3d, %3d, %3d, %3d,  %+.16e ' % (i+1,j+1,k+1,l+1, mo_ERI[i,j,k,l]) )

--------------------------------------------------------------------------

    Molecular point group: c1

    Geometry (in Angstrom), charge = 0, multiplicity = 1:

       Center              X                  Y                   Z               Mass
    ------------   -----------------  -----------------  -----------------  -----------------
         O           -0.054712566261     0.038684812627     0.000000000000    15.994914619560
         H           -0.005504691623    -0.928813958996     0.000000000000     1.007825032070
         H            0.873832822123     0.314857909733    -0.000000000000     1.007825032070

  Charge       = 0
  Multiplicity = 1
  Basis Set: STO-3G
    Blend: STO-3G
  Basis Set: (STO-3G AUX)
    Blend: DEF2-SVP-JKFIT

    Orbital Energies [Eh]
    ---------------------

    Doubly Occupied:

       1A    -20.244551     2A     -1.263608     3A     -0.610465
       4A     -0.453685     5A     -0.391168

  @DF-RHF Final Energy:   -74.96460658341161

   => Energetics <=

    Nuclear Repulsion Energy =              9.0874069753894471
    One-Electron Energy =                -122.1770769399337127
    Two-Electron Energy =                  38.1250633811326693
    Total Energy =                        -74.9646065834116087

  Dipole Moment: [D]
     X:     1.4010      Y:    -0.9905      Z:    -0.0000     Total:     1.7158

*** Psi4 exiting successfully. Buy a developer a beer!
