                               Psi4 1.2.1 release

  ==> Input File <==

--------------------------------------------------------------------------
#! STO-3G H2 FullCI Energy Point
# see also: http://pubchemqc.riken.jp/cgi-bin/molecularquery.py?name=hydrogen

molecule h2 {
H            0.0   0.0   0.0
H            0.0   0.0   1.4
unit bohr
}

set {
  basis STO-3G
}

thisenergy = energy('fci')
--------------------------------------------------------------------------

    Molecular point group: d2h

    Geometry (in Bohr), charge = 0, multiplicity = 1:

       Center              X                  Y                   Z               Mass
    ------------   -----------------  -----------------  -----------------  -----------------
         H            0.000000000000     0.000000000000    -0.700000000000     1.007825032070
         H            0.000000000000     0.000000000000     0.700000000000     1.007825032070

  Charge       = 0
  Multiplicity = 1
  Basis Set: STO-3G
    Blend: STO-3G

    Orbital Energies [Eh]
    ---------------------

    Doubly Occupied:

       1Ag    -0.578203

  @RHF Final Energy:    -1.11671432506257
    Total Energy =                         -1.1167143250625697

  Dipole Moment: [D]
     X:     0.0000      Y:     0.0000      Z:     0.0000     Total:     0.0000

   ==> Energetics <==

    SCF energy =           -1.116714325062570
    Total CI energy =      -1.137275943617065

   ==> FCI root 0 information <==

    FCI Root 0 energy =    -1.137275943617065

   The 2 most important determinants:

    *   1   -0.993627  (    0,    0)  1AgX
    *   2    0.112716  (    1,    1)  1B1uX

		 "A good bug is a dead bug"

			 - Starship Troopers

		 "I didn't write FORTRAN.  That's the problem."

			 - Edward Valeev

    Psi4 stopped on: Friday, 05 July 2019 12:04PM
    Psi4 wall time for execution: 0:00:00.32

*** Psi4 exiting successfully. Buy a developer a beer!
