                               Psi4 1.2.1 release

  ==> Input File <==

--------------------------------------------------------------------------
#! STO-3G H2O FullCI
# GEOM: B3LYP/6-31G* taken from http://pubchemqc.riken.jp/cgi-bin/molecularquery.py?name=water

molecule h2o {
O           0.9784782017    0.0224130404    0.0994725951
H           1.9459769733    0.0279738016    0.0505799279
H           0.7023051046    0.1274709488   -0.8231103953
symmetry c1
}

set {
  basis STO-3G
}

ene = energy('fci')

--------------------------------------------------------------------------

    Molecular point group: c1

    Geometry (in Angstrom), charge = 0, multiplicity = 1:

       Center              X                  Y                   Z               Mass
    ------------   -----------------  -----------------  -----------------  -----------------
         O           -0.054712566261     0.038684812627     0.000000000000    15.994914619560
         H           -0.005504691623    -0.928813958996     0.000000000000     1.007825032070
         H            0.873832822123     0.314857909733    -0.000000000000     1.007825032070

  Charge       = 0
  Multiplicity = 1
  Basis Set: STO-3G
    Blend: STO-3G

    Orbital Energies [Eh]
    ---------------------

    Doubly Occupied:

       1A    -20.244332     2A     -1.263592     3A     -0.610466
       4A     -0.453686     5A     -0.391169

  @RHF Final Energy:   -74.96451911288604
    Total Energy =                        -74.9645191128860375

  Dipole Moment: [D]
     X:     1.4012      Y:    -0.9907      Z:     0.0000     Total:     1.7161

   ==> Energetics <==

    SCF energy =          -74.964519112886038
    Total CI energy =     -75.015624517564092

   ==> FCI root 0 information <==

    FCI Root 0 energy =   -75.015624517564092

   The 20 most important determinants:

    *   1    0.986016  (    0,    0)  1AX 2AX 3AX 4AX 5AX
    *   2   -0.078860  (    8,    8)  1AX 2AX 4AX 5AX 7AX
    *   3   -0.048596  (    2,    8)  1AX 2AX 3AA 4AB 5AX 6AA 7AB
    *   4   -0.048596  (    8,    2)  1AX 2AX 3AB 4AA 5AX 6AB 7AA
    *   5   -0.047904  (    2,    2)  1AX 2AX 3AX 5AX 6AX
    *   6   -0.043927  (    3,    3)  1AX 2AX 4AX 5AX 6AX
    *   7   -0.042412  (    7,    7)  1AX 2AX 3AX 5AX 7AX
    *   8   -0.035516  (    3,    7)  1AX 2AX 3AB 4AA 5AX 6AA 7AB
    *   9   -0.035516  (    7,    3)  1AX 2AX 3AA 4AB 5AX 6AB 7AA
    *  10    0.033296  (    2,    4)  1AX 2AA 3AX 4AB 5AX 6AX
    *  11    0.033296  (    4,    2)  1AX 2AB 3AX 4AA 5AX 6AX
    *  12   -0.031808  (    4,    4)  1AX 3AX 4AX 5AX 6AX
    *  13    0.031136  (    4,    8)  1AX 2AB 3AA 4AX 5AX 6AA 7AB
    *  14    0.031136  (    8,    4)  1AX 2AA 3AB 4AX 5AX 6AB 7AA
    *  15   -0.026713  (    1,    1)  1AX 2AX 3AX 4AX 6AX
    *  16    0.020492  (    3,    9)  1AX 2AA 3AB 4AX 5AX 6AA 7AB
    *  17    0.020492  (    9,    3)  1AX 2AB 3AA 4AX 5AX 6AB 7AA
    *  18   -0.016641  (    9,    9)  1AX 3AX 4AX 5AX 7AX
    *  19   -0.013080  (    0,   15)  1AX 2AX 3AA 4AA 5AX 6AB 7AB
    *  20   -0.013080  (   15,    0)  1AX 2AX 3AB 4AB 5AX 6AA 7AA

*** Psi4 exiting successfully. Buy a developer a beer!
