                               Psi4 1.2.1 release

  ==> Input File <==

--------------------------------------------------------------------------
#! STO-3G H2O FullCI
# GEOM: B3LYP/6-31G* taken from http://pubchemqc.riken.jp/cgi-bin/molecularquery.py?name=water

molecule h2o {
O           0.9784782017    0.0224130404    0.0994725951
H           1.9459769733    0.0279738016    0.0505799279
H           0.7023051046    0.1274709488   -0.8231103953
}

set {
  basis STO-3G
}

ene = energy('fci')

--------------------------------------------------------------------------

    Molecular point group: cs

    Geometry (in Angstrom), charge = 0, multiplicity = 1:

       Center              X                  Y                   Z               Mass
    ------------   -----------------  -----------------  -----------------  -----------------
         O           -0.054712566261     0.038684812627     0.000000000000    15.994914619560
         H           -0.005504691623    -0.928813958996     0.000000000000     1.007825032070
         H            0.873832822123     0.314857909733     0.000000000000     1.007825032070

  Charge       = 0
  Multiplicity = 1
  Basis Set: STO-3G
    Blend: STO-3G

    Orbital Energies [Eh]
    ---------------------

    Doubly Occupied:

       1Ap   -20.244332     2Ap    -1.263592     3Ap    -0.610466
       4Ap    -0.453686     1App   -0.391169

  @RHF Final Energy:   -74.96451911288602
    Total Energy =                        -74.9645191128860233

  Dipole Moment: [D]
     X:     1.4012      Y:    -0.9907      Z:     0.0000     Total:     1.7161

   ==> Energetics <==

    SCF energy =          -74.964519112886023
    Total CI energy =     -75.015624517563609

   ==> FCI root 0 information <==

    FCI Root 0 energy =   -75.015624517563609

   The 20 most important determinants:

    *   1    0.986016  (    6,    6)  1ApX 2ApX 3ApX 4ApX 1AppX
    *   2   -0.078860  (   12,   12)  1ApX 2ApX 4ApX 1AppX 6ApX
    *   3   -0.048596  (    7,   12)  1ApX 2ApX 3ApA 4ApB 1AppX 5ApA 6ApB
    *   4   -0.048596  (   12,    7)  1ApX 2ApX 3ApB 4ApA 1AppX 5ApB 6ApA
    *   5   -0.047904  (    7,    7)  1ApX 2ApX 3ApX 1AppX 5ApX
    *   6   -0.043927  (    8,    8)  1ApX 2ApX 4ApX 1AppX 5ApX
    *   7   -0.042412  (   11,   11)  1ApX 2ApX 3ApX 1AppX 6ApX
    *   8   -0.035516  (    8,   11)  1ApX 2ApX 3ApB 4ApA 1AppX 5ApA 6ApB
    *   9   -0.035516  (   11,    8)  1ApX 2ApX 3ApA 4ApB 1AppX 5ApB 6ApA
    *  10    0.033296  (    7,    9)  1ApX 2ApA 3ApX 4ApB 1AppX 5ApX
    *  11    0.033296  (    9,    7)  1ApX 2ApB 3ApX 4ApA 1AppX 5ApX
    *  12   -0.031808  (    9,    9)  1ApX 3ApX 4ApX 1AppX 5ApX
    *  13    0.031136  (    9,   12)  1ApX 2ApB 3ApA 4ApX 1AppX 5ApA 6ApB
    *  14    0.031136  (   12,    9)  1ApX 2ApA 3ApB 4ApX 1AppX 5ApB 6ApA
    *  15   -0.026713  (    0,    0)  1ApX 2ApX 3ApX 4ApX 5ApX
    *  16    0.020492  (    8,   13)  1ApX 2ApA 3ApB 4ApX 1AppX 5ApA 6ApB
    *  17    0.020492  (   13,    8)  1ApX 2ApB 3ApA 4ApX 1AppX 5ApB 6ApA
    *  18   -0.016641  (   13,   13)  1ApX 3ApX 4ApX 1AppX 6ApX
    *  19   -0.013080  (    6,   15)  1ApX 2ApX 3ApA 4ApA 1AppX 5ApB 6ApB
    *  20   -0.013080  (   15,    6)  1ApX 2ApX 3ApB 4ApB 1AppX 5ApA 6ApA

*** Psi4 exiting successfully. Buy a developer a beer!
