                               Psi4 1.2.1 release

  ==> Input File <==

--------------------------------------------------------------------------
#! 6-31G N2 FullCI
# GEOM: B3LYP/6-31G* taken http://pubchemqc.riken.jp/cgi-bin/molecularquery.py?name=nitrogen

molecule n2 {
N          1.1054794856    0.0  0.0
N          0.0             0.0  0.0
}

set {
  basis 6-31g
}

ene = energy('fci')

--------------------------------------------------------------------------

    Molecular point group: d2h

    Geometry (in Angstrom), charge = 0, multiplicity = 1:

       Center              X                  Y                   Z               Mass
    ------------   -----------------  -----------------  -----------------  -----------------
         N            0.552739742800     0.000000000000     0.000000000000    14.003074004780
         N           -0.552739742800    -0.000000000000     0.000000000000    14.003074004780

  Charge       = 0
  Multiplicity = 1
  Basis Set: 6-31G
    Blend: 6-31G

    Orbital Energies [Eh]
    ---------------------

    Doubly Occupied:

       1Ag   -15.720137     1B3u  -15.716882     2Ag    -1.521109
       2B3u   -0.777655     3Ag    -0.628861     1B1u   -0.618939
       1B2u   -0.618939

  @RHF Final Energy:  -108.86714132273930
    Total Energy =                       -108.8671413227393003

  Dipole Moment: [D]
     X:     0.0000      Y:     0.0000      Z:     0.0000     Total:     0.0000

   ==> Energetics <==

    SCF energy =         -108.867141322739300
    Total CI energy =    -109.106290542847802

   ==> FCI root 0 information <==

    FCI Root 0 energy =  -109.106290542847802

   The 20 most important determinants:

    *   1    0.945385  (11896,11896)  1AgX 2AgX 3AgX 1B1uX 1B2uX 1B3uX 2B3uX
    *   2   -0.113464  (15964,15964)  1AgX 2AgX 3AgX 1B2uX 1B3uX 2B3uX 1B2gX
    *   3   -0.113464  (15922,15922)  1AgX 2AgX 3AgX 1B1uX 1B3uX 2B3uX 1B1gX
    *   4    0.072942  (15922,15964)  1AgX 2AgX 3AgX 1B1uA 1B2uB 1B3uX 2B3uX 1B1gA 1B2gB
    *   5    0.072942  (15964,15922)  1AgX 2AgX 3AgX 1B1uB 1B2uA 1B3uX 2B3uX 1B1gB 1B2gA
    *   6   -0.052837  (19933,19933)  1AgX 2AgX 3AgX 1B1uX 1B2uX 1B3uX 1B1gX
    *   7   -0.052837  (23944,23944)  1AgX 2AgX 3AgX 1B1uX 1B2uX 1B3uX 1B2gX
    *   8    0.042401  (11896,11952)  1AgX 2AgX 3AgX 1B1uA 1B2uA 1B3uX 2B3uX 1B1gB 1B2gB
    *   9    0.042401  (11952,11896)  1AgX 2AgX 3AgX 1B1uB 1B2uB 1B3uX 2B3uX 1B1gA 1B2gA
    *  10   -0.035081  (15964,16010)  1AgX 2AgX 3AgX 1B2uX 1B3uX 2B3uX 1B2gA 2B2gB
    *  11   -0.035081  (16010,15964)  1AgX 2AgX 3AgX 1B2uX 1B3uX 2B3uX 1B2gB 2B2gA
    *  12   -0.035081  (15922,15933)  1AgX 2AgX 3AgX 1B1uX 1B3uX 2B3uX 1B1gA 2B1gB
    *  13   -0.035081  (15933,15922)  1AgX 2AgX 3AgX 1B1uX 1B3uX 2B3uX 1B1gB 2B1gA
    *  14   -0.032647  (17320,17320)  1AgX 2AgX 1B1uX 1B2uX 1B3uX 2B3uX 4B3uX
    *  15    0.030542  (27912,27944)  1AgX 2AgX 3AgX 1B1uB 1B2uA 1B3uX 2B3uX 1B1gA 1B2gB
    *  16    0.030542  (27944,27912)  1AgX 2AgX 3AgX 1B1uA 1B2uB 1B3uX 2B3uX 1B1gB 1B2gA
    *  17    0.028098  (11952,11952)  1AgX 2AgX 3AgX 1B3uX 2B3uX 1B1gX 1B2gX
    *  18    0.024786  (15922,17320)  1AgX 2AgX 3AgA 1B1uX 1B2uB 1B3uX 2B3uX 1B1gA 4B3uB
    *  19    0.024786  (17320,15922)  1AgX 2AgX 3AgB 1B1uX 1B2uA 1B3uX 2B3uX 1B1gB 4B3uA
    *  20   -0.024786  (15964,17320)  1AgX 2AgX 3AgA 1B1uB 1B2uX 1B3uX 2B3uX 1B2gA 4B3uB

*** Psi4 exiting successfully. Buy a developer a beer!
