                               Psi4 1.2 release

  ==> Input File <==

--------------------------------------------------------------------------
#! 6-31G N2 FullCI PES

molecule n2 {
N          R    0.0  0.0
N          0.0  0.0  0.0
}

set {
  basis 6-31g
  soscf true
  restart true
}

Rvals=[0.5, 0.6, 0.7, 0.8, 0.9, 1.0, 1.1, 1.2, 1.3, 1.4, 1.5, 1.6, 1.7, 1.8, 1.9, 2.0, 2.1, 2.2, 2.3, 2.4, 2.5, 2.6, 2.7, 2.8, 2.9, 3.0, 3.1, 3.2]
Rvals2=[3.2, 3.5, 4.0, 4.5, 5.0]

for R in Rvals:
   n2.R = R
   hfene=energy('hf')
   ccsdene=energy('ccsd(t)')
   mp2ene=energy('mp2')
   print ('%f %f %f %f' % ( R, hfene, mp2ene, ccsdene) )
#  clean()

for R in Rvals2:
   n2.R = R
   hfene=energy('hf')
   print ('%f %f' % ( R, hfene) )
--------------------------------------------------------------------------

    Molecular point group: c2v
  Charge       = 0
  Multiplicity = 1
  Basis Set: 6-31G
    Blend: 6-31G
  Basis Set: (6-31G AUX)
    Blend: CC-PVDZ-JKFIT
  @DF-RHF Final Energy:  -102.95296010887147
    Total Energy =                       -102.9529601088714656
    Molecular point group: c2v
  Basis Set: 6-31G
    Blend: 6-31G
  @RHF Final Energy:  -102.95323895116010
    Total Energy =                       -102.9532389511601025
      * MP2 total energy                      = -103.044967819838405
      * CCSD total energy                     = -103.056470966901230
      * CCSD(T) total energy                  = -103.057816866384471
  Basis Set: 6-31G
    Blend: 6-31G
  Basis Set: (6-31G AUX)
    Blend: CC-PVDZ-JKFIT
  @DF-RHF Final Energy:  -102.95296010887147
    Total Energy =                       -102.9529601088714656
  Basis Set: (6-31G AUX)
    Blend: CC-PVDZ-RI
	 Reference Energy          =    -102.9529601088714656 [Eh]
	 Singles Energy            =      -0.0000000000000000 [Eh]
  @DF-RHF Final Energy:  -105.93303813851205
    Total Energy =                       -105.9330381385120461
  @RHF Final Energy:  -105.93328294624824
    Total Energy =                       -105.9332829462482408
      * MP2 total energy                      = -106.045585866702027
      * CCSD total energy                     = -106.055769251567298
      * CCSD(T) total energy                  = -106.057337504244089
  @DF-RHF Final Energy:  -105.93303813851323
    Total Energy =                       -105.9330381385132256
  @DF-RHF Final Energy:  -107.49556803337380
    Total Energy =                       -107.4955680333738002
  @RHF Final Energy:  -107.49577011852200
    Total Energy =                       -107.4957701185220031
      * MP2 total energy                      = -107.632361226645060
      * CCSD total energy                     = -107.640742937543010
      * CCSD(T) total energy                  = -107.642848120012317
  @DF-RHF Final Energy:  -107.49556803337413
    Total Energy =                       -107.4955680333741270
  @DF-RHF Final Energy:  -108.29534612444537
    Total Energy =                       -108.2953461244453734
  @RHF Final Energy:  -108.29551134874529
    Total Energy =                       -108.2955113487452934
      * MP2 total energy                      = -108.455617417867145
      * CCSD total energy                     = -108.461487231034923
      * CCSD(T) total energy                  = -108.464389730510348
  @DF-RHF Final Energy:  -108.29534612444601
    Total Energy =                       -108.2953461244460129
  @DF-RHF Final Energy:  -108.67921677545877
    Total Energy =                       -108.6792167754587695
  @RHF Final Energy:  -108.67936105517633
    Total Energy =                       -108.6793610551763294
      * CCSD(T) total energy                  = -109.326411193470989
  @DF-RHF Final Energy:  -108.00262449280922
    Total Energy =                       -108.0026244928092183
  @DF-RHF Final Energy:  -107.98250292415761
    Total Energy =                       -107.9825029241576146
  @RHF Final Energy:  -107.98255929138864
    Total Energy =                       -107.9825592913886254
      * MP2 total energy                      = -109.817560572899680
      * CCSD total energy                     = -108.990899460793997
      * CCSD(T) total energy                  = -109.337579512296088
  @DF-RHF Final Energy:  -107.98250292415895
    Total Energy =                       -107.9825029241589505
  @DF-RHF Final Energy:  -107.96423513201245
    Total Energy =                       -107.9642351320124476
  @RHF Final Energy:  -107.96428088101089
    Total Energy =                       -107.9642808810108932
      * MP2 total energy                      = -109.922092420640453
      * CCSD total energy                     = -108.992702702308250
      * CCSD(T) total energy                  = -109.346241653440686
  @DF-RHF Final Energy:  -107.96423513201346
    Total Energy =                       -107.9642351320134566
  @DF-RHF Final Energy:  -107.94763035752146
    Total Energy =                       -107.9476303575214615
  @RHF Final Energy:  -107.94766676893761
    Total Energy =                       -107.9476667689376086
      * MP2 total energy                      = -110.030320476036138
      * CCSD total energy                     = -108.994079757389144
      * CCSD(T) total energy                  = -109.352874189840250
  @DF-RHF Final Energy:  -107.94763035752230
    Total Energy =                       -107.9476303575223000

	 ================> DF-SCS-MP2 Energies <==================
	-----------------------------------------------------------
	 SCS Same-Spin Scale       =       0.3333333333333333 [-]
	 SCS Opposite-Spin Scale   =       1.2000000000000000 [-]
	 SCS Same-Spin Energy      =      -0.2304473229237481 [Eh]
	 SCS Opposite-Spin Energy  =      -1.6696675813746797 [Eh]
	 SCS Correlation Energy    =      -1.9001149042984280 [Eh]
	 SCS Total Energy          =    -109.8477452618207337 [Eh]
	-----------------------------------------------------------

  @DF-RHF Final Energy:  -107.94763035752146
    Total Energy =                       -107.9476303575214615
  Basis Set: 6-31G
    Blend: 6-31G
  Basis Set: (6-31G AUX)
    Blend: CC-PVDZ-JKFIT
  @DF-RHF Final Energy:  -107.90622185120722
    Total Energy =                       -107.9062218512072207
  Basis Set: 6-31G
    Blend: 6-31G
  Basis Set: (6-31G AUX)
    Blend: CC-PVDZ-JKFIT
  @DF-RHF Final Energy:  -107.85823512683453
    Total Energy =                       -107.8582351268345292
  Multiplicity = 1
  Basis Set: 6-31G
    Blend: 6-31G
  Basis Set: (6-31G AUX)
    Blend: CC-PVDZ-JKFIT
  @DF-RHF Final Energy:  -107.82744493886113
    Total Energy =                       -107.8274449388611345
    Molecular point group: c2v

    Geometry (in Angstrom), charge = 0, multiplicity = 1:

       Center              X                  Y                   Z               Mass
    ------------   -----------------  -----------------  -----------------  -----------------
         N            5.000000000000     0.000000000000     0.000000000000    14.003074004780
         N            0.000000000000     0.000000000000     0.000000000000    14.003074004780

  Charge       = 0
  Multiplicity = 1
  Basis Set: 6-31G
    Blend: 6-31G
  Basis Set: (6-31G AUX)
    Blend: CC-PVDZ-JKFIT

    Orbital Energies [Eh]
    ---------------------

    Doubly Occupied:

       1A1   -15.800106     2A1   -15.800087     3A1    -1.011024
       4A1    -1.007877     5A1    -0.291345     1B1    -0.289001
       1B2    -0.289001

  @DF-RHF Final Energy:  -107.80657032177604

   => Energetics <=

    Nuclear Repulsion Energy =              5.1859366441820001
    One-Electron Energy =                -157.0081318571160978
    Two-Electron Energy =                  44.0156248911580832
    PCM Polarization Energy =               0.0000000000000000
    Total Energy =                       -107.8065703217760216

  Dipole Moment: [D]
     X:    -0.0000      Y:     0.0000      Z:     0.0000     Total:     0.0000

*** Psi4 exiting successfully. Buy a developer a beer!
