                               Psi4 1.3.2 release

  ==> Input File <==

--------------------------------------------------------------------------
#! 6-31G N2 FullCI PES

molecule n2 {
N          R    0.0  0.0
N          0.0  0.0  0.0
}

set {
  basis 6-31g
}

Rvals=[0.5, 0.6, 0.7, 0.8, 0.9, 1.0, 1.1, 1.2, 1.3, 1.4, 1.5, 1.6, 1.7, 1.8, 1.9, 2.0]
Rvals2=[3.0, 4.0]

for R in Rvals:
   n2.R = R
   hfene=energy('hf')
   ccsdene=energy('ccsd(t)')
   mp2ene=energy('mp2')
   print ('%f %f %f %f' % ( R, hfene, mp2ene, ccsdene) )
   clean()

for R in Rvals2:
   n2.R = R
   hfene=energy('hf')
   mp2ene=energy('mp2')
   print ('%f %f %f' % ( R, hfene, mp2ene) )
   clean()
--------------------------------------------------------------------------

    Molecular point group: c2v
  Charge       = 0
  Multiplicity = 1
  Basis Set: 6-31G
    Blend: 6-31G
  Basis Set: (6-31G AUX)
    Blend: CC-PVDZ-JKFIT
  @DF-RHF Final Energy:  -102.95296002969167
    Total Energy =                       -102.9529600296916669
    Molecular point group: c2v
  Basis Set: 6-31G
    Blend: 6-31G
  @RHF Final Energy:  -102.95323887187465
    Total Energy =                       -102.9532388718746461
      * MP2 total energy                      = -103.044967740321113
      * CCSD total energy                     = -103.056470887445329
      * CCSD(T) total energy                  = -103.057816786934296
  Basis Set: 6-31G
    Blend: 6-31G
  Basis Set: (6-31G AUX)
    Blend: CC-PVDZ-JKFIT
  @DF-RHF Final Energy:  -102.95296002969400
    Total Energy =                       -102.9529600296939975
  Basis Set: (6-31G AUX)
    Blend: CC-PVDZ-RI
	 Reference Energy          =    -102.9529600296939975 [Eh]
	 Singles Energy            =      -0.0000000000000000 [Eh]
  @DF-RHF Final Energy:  -105.93303808805672
    Total Energy =                       -105.9330380880567191
  @RHF Final Energy:  -105.93328289612705
    Total Energy =                       -105.9332828961270536
      * MP2 total energy                      = -106.045585816052181
      * CCSD total energy                     = -106.055769200165017
      * CCSD(T) total energy                  = -106.057337452832670
  @DF-RHF Final Energy:  -105.93303808807912
    Total Energy =                       -105.9330380880791154
  @DF-RHF Final Energy:  -107.49556800290327
    Total Energy =                       -107.4955680029032692
  @RHF Final Energy:  -107.49577008813701
    Total Energy =                       -107.4957700881370073
      * MP2 total energy                      = -107.632361195608780
      * CCSD total energy                     = -107.640742905164231
      * CCSD(T) total energy                  = -107.642848087533949
  @DF-RHF Final Energy:  -107.49556800292359
    Total Energy =                       -107.4955680029235907
  @DF-RHF Final Energy:  -108.29534610712912
    Total Energy =                       -108.2953461071291201
  @RHF Final Energy:  -108.29551133143066
    Total Energy =                       -108.2955113314306601
      * MP2 total energy                      = -108.455617399851420
      * CCSD total energy                     = -108.461487212566936
      * CCSD(T) total energy                  = -108.464389711971137
  @DF-RHF Final Energy:  -108.29534610715228
    Total Energy =                       -108.2953461071522838
  @DF-RHF Final Energy:  -108.67921676677938
    Total Energy =                       -108.6792167667793763
  @RHF Final Energy:  -108.67936104643084
    Total Energy =                       -108.6793610464308415
      * MP2 total energy                      = -109.025172487355988
      * CCSD total energy                     = -108.876318166219548
      * CCSD(T) total energy                  = -108.913511110000272
  @DF-RHF Final Energy:  -108.48355850421120
    Total Energy =                       -108.4835585042112029
  @DF-RHF Final Energy:  -108.42069024486757
    Total Energy =                       -108.4206902448675720
  @RHF Final Energy:  -108.42079877064121
    Total Energy =                       -108.4207987706412126
      * MP2 total energy                      = -109.034147233701930
      * CCSD total energy                     = -108.854631203454645
      * CCSD(T) total energy                  = -108.904211551499870
  @DF-RHF Final Energy:  -108.42069024487529
    Total Energy =                       -108.4206902448752885
  @DF-RHF Final Energy:  -108.36273582423799
    Total Energy =                       -108.3627358242379870
  @RHF Final Energy:  -108.36283944843072
    Total Energy =                       -108.3628394484307194
      * MP2 total energy                      = -109.053781808230966
      * CCSD total energy                     = -108.851127791632337
      * CCSD(T) total energy                  = -108.921544867869031
  @DF-RHF Final Energy:  -108.36273582424180
    Total Energy =                       -108.3627358242417813
  @DF-RHF Final Energy:  -108.30949860686434
    Total Energy =                       -108.3094986068643379
  @RHF Final Energy:  -108.30960085123996
    Total Energy =                       -108.3096008512399777
      * MP2 total energy                      = -109.083632000671273
      * CCSD total energy                     = -108.868427902453561
      * CCSD(T) total energy                  = -108.972195325948363
  @DF-RHF Final Energy:  -108.30949860686592
    Total Energy =                       -108.3094986068659296
  @DF-RHF Final Energy:  -107.98250292640881
    Total Energy =                       -107.9825029264088130
  @DF-RHF Final Energy:  -107.98250292640874
    Total Energy =                       -107.9825029264087561
	 SCS Total Energy          =    -109.6601814900328691 [Eh]
  Multiplicity = 1
  Basis Set: 6-31G
    Blend: 6-31G
  Basis Set: (6-31G AUX)
    Blend: CC-PVDZ-JKFIT
  @DF-RHF Final Energy:  -107.85823512801669
    Total Energy =                       -107.8582351280166876
    Molecular point group: c2v

    Geometry (in Angstrom), charge = 0, multiplicity = 1:

       Center              X                  Y                   Z               Mass
    ------------   -----------------  -----------------  -----------------  -----------------
         N            4.000000000000     0.000000000000     0.000000000000    14.003074004430
         N            0.000000000000     0.000000000000     0.000000000000    14.003074004430

  Charge       = 0
  Multiplicity = 1
  Basis Set: 6-31G
    Blend: 6-31G
  Basis Set: (6-31G AUX)
    Blend: CC-PVDZ-JKFIT

    Orbital Energies [Eh]
    ---------------------

    Doubly Occupied:

       1A1   -15.807281     2A1   -15.807246     3A1    -1.016262
       4A1    -1.009258     5A1    -0.312276     1B2    -0.305261
       1B1    -0.305261

  @DF-RHF Final Energy:  -107.85823512801801

   => Energetics <=

    Nuclear Repulsion Energy =              6.4824208307075004
    One-Electron Energy =                -159.5556254758814134
    Two-Electron Energy =                  45.2149695171559003
    Total Energy =                       -107.8582351280180092

  Dipole Moment: [D]
     X:    -0.0000      Y:     0.0000      Z:     0.0000     Total:     0.0000

  Basis Set: (6-31G AUX)
    Blend: CC-PVDZ-RI
	 Reference Energy          =    -107.8582351280180092 [Eh]
	 Singles Energy            =      -0.0000000000000000 [Eh]
	 Same-Spin Energy          =      -1.0534678751911930 [Eh]
	 Opposite-Spin Energy      =      -2.0628977350737441 [Eh]
	 Correlation Energy        =      -3.1163656102649373 [Eh]
	 Total Energy              =    -110.9746007382829447 [Eh]

	 ================> DF-SCS-MP2 Energies <==================
	-----------------------------------------------------------
	 SCS Same-Spin Scale       =       0.3333333333333333 [-]
	 SCS Opposite-Spin Scale   =       1.2000000000000000 [-]
	 SCS Same-Spin Energy      =      -0.3511559583970643 [Eh]
	 SCS Opposite-Spin Energy  =      -2.4754772820884927 [Eh]
	 SCS Correlation Energy    =      -2.8266332404855570 [Eh]
	 SCS Total Energy          =    -110.6848683685035724 [Eh]
	-----------------------------------------------------------

*** Psi4 exiting successfully. Buy a developer a beer!
