                               Psi4 1.2 release

  ==> Input File <==

--------------------------------------------------------------------------
#! 6-31G N2 FullCI PES

molecule n2 {
N          R    0.0  0.0
N          0.0  0.0  0.0
}

set {
  basis 6-31g
}

Rvals=[0.5, 0.6, 0.7, 0.8, 0.9, 1.0, 1.1, 1.2, 1.3, 1.4, 1.5, 1.6, 1.7, 1.8, 1.9, 2.0, 2.1, 2.2, 2.3, 2.4, 2.5, 3.0, 3.5, 4.0, 4.5, 5.0, 6.0]

for R in Rvals:
   n2.R = R
   hfene=energy('hf')
   fciene=energy('fci')
   print ('%f %f %f' % ( R, hfene, fciene) )
   clean()
--------------------------------------------------------------------------

    Molecular point group: c2v
  Charge       = 0
  Multiplicity = 1
  Basis Set: 6-31G
    Blend: 6-31G
  Basis Set: (6-31G AUX)
    Blend: CC-PVDZ-JKFIT
  @DF-RHF Final Energy:  -102.95296010879966
    Total Energy =                       -102.9529601087996582
    Molecular point group: c2v
  Basis Set: 6-31G
    Blend: 6-31G
  @RHF Final Energy:  -102.95323895116007
    Total Energy =                       -102.9532389511600741
  Basis Set: 6-31G
    Blend: 6-31G
  Basis Set: (6-31G AUX)
    Blend: CC-PVDZ-JKFIT
  @DF-RHF Final Energy:  -105.93303813849045
    Total Energy =                       -105.9330381384904456
  Basis Set: 6-31G
    Blend: 6-31G
  @RHF Final Energy:  -105.93328294624820
    Total Energy =                       -105.9332829462481982
  Basis Set: 6-31G
    Blend: 6-31G
  Basis Set: (6-31G AUX)
    Blend: CC-PVDZ-JKFIT
  @DF-RHF Final Energy:  -107.49556803335547
    Total Energy =                       -107.4955680333554682
  @RHF Final Energy:  -107.49577011852202
    Total Energy =                       -107.4957701185220174
  @DF-RHF Final Energy:  -108.29534612442382
    Total Energy =                       -108.2953461244238156
  @RHF Final Energy:  -108.29551134874511
    Total Energy =                       -108.2955113487451086
  @DF-RHF Final Energy:  -108.67921677543733
    Total Energy =                       -108.6792167754373253
  @RHF Final Energy:  -108.67936105517610
    Total Energy =                       -108.6793610551761020
  @DF-RHF Final Energy:  -108.83509700789516
    Total Energy =                       -108.8350970078951576
  @RHF Final Energy:  -108.83523657435697
    Total Energy =                       -108.8352365743569692
  @DF-RHF Final Energy:  -108.86747265248742
    Total Energy =                       -108.8674726524874075
  @RHF Final Energy:  -108.86761837271771
    Total Energy =                       -108.8676183727177147
  @DF-RHF Final Energy:  -108.83561824566448
    Total Energy =                       -108.8356182456644774
  @RHF Final Energy:  -108.83577420722388
    Total Energy =                       -108.8357742072238779
  @DF-RHF Final Energy:  -108.77331950718512
    Total Energy =                       -108.7733195071851213
  @RHF Final Energy:  -108.77348170270685
    Total Energy =                       -108.7734817027068459
  @DF-RHF Final Energy:  -108.69946066801717
    Total Energy =                       -108.6994606680171671
  @RHF Final Energy:  -108.69961968205541
    Total Energy =                       -108.6996196820554133
  @DF-RHF Final Energy:  -108.21635891716576
    Total Energy =                       -108.2163589171657776
  @RHF Final Energy:  -108.21646278648815
    Total Energy =                       -108.2164627864881368
  @DF-RHF Final Energy:  -108.17600071012066
    Total Energy =                       -108.1760007101206611
  @RHF Final Energy:  -108.17610516047456
    Total Energy =                       -108.1761051604745489
  @DF-RHF Final Energy:  -108.13942352204856
    Total Energy =                       -108.1394235220485456
  @RHF Final Energy:  -108.13952718316904
    Total Energy =                       -108.1395271831690366
  @DF-RHF Final Energy:  -108.10632346996786
    Total Energy =                       -108.1063234699678617
  @RHF Final Energy:  -108.10642431352660
    Total Energy =                       -108.1064243135266167
  @DF-RHF Final Energy:  -107.98250292415892
    Total Energy =                       -107.9825029241589078
  @RHF Final Energy:  -107.98255929138864
    Total Energy =                       -107.9825592913886396
  @DF-RHF Final Energy:  -107.90622185120395
    Total Energy =                       -107.9062218512039522
  @RHF Final Energy:  -107.90624089638990
    Total Energy =                       -107.9062408963899031
  @DF-RHF Final Energy:  -107.85823512683162
    Total Energy =                       -107.8582351268316302
  @RHF Final Energy:  -107.85824993393716
    Total Energy =                       -107.8582499339371594
  @DF-RHF Final Energy:  -107.82744493886167
    Total Energy =                       -107.8274449388616745
  Basis Set: 6-31G
    Blend: 6-31G
  @RHF Final Energy:  -107.82746162092623
    Total Energy =                       -107.8274616209262291
  Basis Set: 6-31G
    Blend: 6-31G
  Basis Set: (6-31G AUX)
    Blend: CC-PVDZ-JKFIT
  @DF-RHF Final Energy:  -107.80657032197091
    Total Energy =                       -107.8065703219709093
  Basis Set: 6-31G
    Blend: 6-31G
  @RHF Final Energy:  -107.80658765860682
    Total Energy =                       -107.8065876586068157
  Multiplicity = 1
  Basis Set: 6-31G
    Blend: 6-31G
  Basis Set: (6-31G AUX)
    Blend: CC-PVDZ-JKFIT
  @DF-RHF Final Energy:  -107.77886098530271
    Total Energy =                       -107.7788609853027140
    Molecular point group: c2v

    Geometry (in Angstrom), charge = 0, multiplicity = 1:

       Center              X                  Y                   Z               Mass
    ------------   -----------------  -----------------  -----------------  -----------------
         N            6.000000000000     0.000000000000     0.000000000000    14.003074004780
         N            0.000000000000     0.000000000000     0.000000000000    14.003074004780

  Charge       = 0
  Multiplicity = 1
  Basis Set: 6-31G
    Blend: 6-31G

    Orbital Energies [Eh]
    ---------------------

    Doubly Occupied:

       1A1   -15.799341     2A1   -15.799330     3A1    -1.009963
       4A1    -1.008186     5A1    -0.281232     1B2    -0.280050
       1B1    -0.280050

  @RHF Final Energy:  -107.77887822638193
    Total Energy =                       -107.7788782263819201

  Dipole Moment: [D]
     X:    -0.0000      Y:     0.0000      Z:     0.0000     Total:     0.0000

   ==> Energetics <==

    SCF energy =         -107.778878226381920
    Total CI energy =    -108.839882531553471

   ==> FCI root 0 information <==

    FCI Root 0 energy =  -108.839882531553471

   The 20 most important determinants:

    *   1   -0.161049  ( 8077, 9313)  1A1X 2A1X 3A1X 4A1X 1B1B 1B2A 6A1X 2B1A 2B2B
    *   2   -0.161049  ( 9313, 8077)  1A1X 2A1X 3A1X 4A1X 1B1A 1B2B 6A1X 2B1B 2B2A
    *   3    0.161049  (  121, 1753)  1A1X 2A1X 3A1X 4A1X 1B1A 1B2B 6A1X 2B1A 2B2B
    *   4    0.161049  ( 1753,  121)  1A1X 2A1X 3A1X 4A1X 1B1B 1B2A 6A1X 2B1B 2B2A
    *   5   -0.161049  ( 7825, 9565)  1A1X 2A1X 3A1X 4A1X 1B1A 1B2A 6A1X 2B1B 2B2B
    *   6   -0.161049  ( 9565, 7825)  1A1X 2A1X 3A1X 4A1X 1B1B 1B2B 6A1X 2B1A 2B2A
    *   7    0.161048  ( 7824, 9564)  1A1X 2A1X 3A1X 4A1X 5A1X 1B1A 1B2A 2B1B 2B2B
    *   8    0.161048  ( 9564, 7824)  1A1X 2A1X 3A1X 4A1X 5A1X 1B1B 1B2B 2B1A 2B2A
    *   9   -0.161048  (  120, 1752)  1A1X 2A1X 3A1X 4A1X 5A1X 1B1A 1B2B 2B1A 2B2B
    *  10   -0.161048  ( 1752,  120)  1A1X 2A1X 3A1X 4A1X 5A1X 1B1B 1B2A 2B1B 2B2A
    *  11    0.161048  ( 8076, 9312)  1A1X 2A1X 3A1X 4A1X 5A1X 1B1B 1B2A 2B1A 2B2B
    *  12    0.161048  ( 9312, 8076)  1A1X 2A1X 3A1X 4A1X 5A1X 1B1A 1B2B 2B1B 2B2A
    *  13   -0.160967  ( 7824, 8077)  1A1X 2A1X 3A1X 4A1X 5A1A 1B1A 1B2X 6A1B 2B1B
    *  14   -0.160967  ( 8077, 7824)  1A1X 2A1X 3A1X 4A1X 5A1B 1B1B 1B2X 6A1A 2B1A
    *  15    0.160967  ( 7824, 9313)  1A1X 2A1X 3A1X 4A1X 5A1A 1B1X 1B2A 6A1B 2B2B
    *  16    0.160967  ( 9313, 7824)  1A1X 2A1X 3A1X 4A1X 5A1B 1B1X 1B2B 6A1A 2B2A
    *  17    0.160967  (23840,24050)  1A1X 2A1X 3A1X 4A1X 5A1A 1B1B 1B2X 6A1A 2B1B
    *  18    0.160967  (24050,23840)  1A1X 2A1X 3A1X 4A1X 5A1B 1B1A 1B2X 6A1B 2B1A
    *  19   -0.160967  (15856,17536)  1A1X 2A1X 3A1X 4A1X 5A1A 1B1X 1B2B 6A1A 2B2B
    *  20   -0.160967  (17536,15856)  1A1X 2A1X 3A1X 4A1X 5A1B 1B1X 1B2A 6A1B 2B2A

*** Psi4 exiting successfully. Buy a developer a beer!
